# vtk DataFile Version 2.0
By Eli
ASCII
DATASET POLYDATA
POINTS 100 float
0 0 0
0 1 0
0 2 0
0 3 0
0 4 0
0 5 0
0 6 0
0 7 0
0 8 0
0 9 0
1 0 0
1 1 0
1 2 0
1 3 0
1 4 0
1 5 0
1 6 0
1 7 0
1 8 0
1 9 0
2 0 0
2 1 0
2 2 0
2 3 0
2 4 0
2 5 0
2 6 0
2 7 0
2 8 0
2 9 0
3 0 0
3 1 0
3 2 0
3 3 0
3 4 0
3 5 0
3 6 0
3 7 0
3 8 0
3 9 0
4 0 0
4 1 0
4 2 0
4 3 0
4 4 0
4 5 0
4 6 0
4 7 0
4 8 0
4 9 0
5 0 0
5 1 0
5 2 0
5 3 0
5 4 0
5 5 0
5 6 0
5 7 0
5 8 0
5 9 0
6 0 0
6 1 0
6 2 0
6 3 0
6 4 0
6 5 0
6 6 0
6 7 0
6 8 0
6 9 0
7 0 0
7 1 0
7 2 0
7 3 0
7 4 0
7 5 0
7 6 0
7 7 0
7 8 0
7 9 0
8 0 0
8 1 0
8 2 0
8 3 0
8 4 0
8 5 0
8 6 0
8 7 0
8 8 0
8 9 0
9 0 0
9 1 0
9 2 0
9 3 0
9 4 0
9 5 0
9 6 0
9 7 0
9 8 0
9 9 0
POLYGONS 162 648
3 0 1 10 
3 1 10 11 
3 1 2 11 
3 2 11 12 
3 2 3 12 
3 3 12 13 
3 3 4 13 
3 4 13 14 
3 4 5 14 
3 5 14 15 
3 5 6 15 
3 6 15 16 
3 6 7 16 
3 7 16 17 
3 7 8 17 
3 8 17 18 
3 8 9 18 
3 9 18 19 
3 10 11 20 
3 11 20 21 
3 11 12 21 
3 12 21 22 
3 12 13 22 
3 13 22 23 
3 13 14 23 
3 14 23 24 
3 14 15 24 
3 15 24 25 
3 15 16 25 
3 16 25 26 
3 16 17 26 
3 17 26 27 
3 17 18 27 
3 18 27 28 
3 18 19 28 
3 19 28 29 
3 20 21 30 
3 21 30 31 
3 21 22 31 
3 22 31 32 
3 22 23 32 
3 23 32 33 
3 23 24 33 
3 24 33 34 
3 24 25 34 
3 25 34 35 
3 25 26 35 
3 26 35 36 
3 26 27 36 
3 27 36 37 
3 27 28 37 
3 28 37 38 
3 28 29 38 
3 29 38 39 
3 30 31 40 
3 31 40 41 
3 31 32 41 
3 32 41 42 
3 32 33 42 
3 33 42 43 
3 33 34 43 
3 34 43 44 
3 34 35 44 
3 35 44 45 
3 35 36 45 
3 36 45 46 
3 36 37 46 
3 37 46 47 
3 37 38 47 
3 38 47 48 
3 38 39 48 
3 39 48 49 
3 40 41 50 
3 41 50 51 
3 41 42 51 
3 42 51 52 
3 42 43 52 
3 43 52 53 
3 43 44 53 
3 44 53 54 
3 44 45 54 
3 45 54 55 
3 45 46 55 
3 46 55 56 
3 46 47 56 
3 47 56 57 
3 47 48 57 
3 48 57 58 
3 48 49 58 
3 49 58 59 
3 50 51 60 
3 51 60 61 
3 51 52 61 
3 52 61 62 
3 52 53 62 
3 53 62 63 
3 53 54 63 
3 54 63 64 
3 54 55 64 
3 55 64 65 
3 55 56 65 
3 56 65 66 
3 56 57 66 
3 57 66 67 
3 57 58 67 
3 58 67 68 
3 58 59 68 
3 59 68 69 
3 60 61 70 
3 61 70 71 
3 61 62 71 
3 62 71 72 
3 62 63 72 
3 63 72 73 
3 63 64 73 
3 64 73 74 
3 64 65 74 
3 65 74 75 
3 65 66 75 
3 66 75 76 
3 66 67 76 
3 67 76 77 
3 67 68 77 
3 68 77 78 
3 68 69 78 
3 69 78 79 
3 70 71 80 
3 71 80 81 
3 71 72 81 
3 72 81 82 
3 72 73 82 
3 73 82 83 
3 73 74 83 
3 74 83 84 
3 74 75 84 
3 75 84 85 
3 75 76 85 
3 76 85 86 
3 76 77 86 
3 77 86 87 
3 77 78 87 
3 78 87 88 
3 78 79 88 
3 79 88 89 
3 80 81 90 
3 81 90 91 
3 81 82 91 
3 82 91 92 
3 82 83 92 
3 83 92 93 
3 83 84 93 
3 84 93 94 
3 84 85 94 
3 85 94 95 
3 85 86 95 
3 86 95 96 
3 86 87 96 
3 87 96 97 
3 87 88 97 
3 88 97 98 
3 88 89 98 
3 89 98 99 
POINT_DATA 100
SCALARS Labels float
LOOKUP_TABLE Labels
0
0
0
0
0
0
0
0
0
0
0
0
0
0
0
0
0
0
0
0
1
1
1
1
1
1
1
1
1
1
1
1
1
1
1
1
1
1
1
1
0
0
0
0
0
0
0
0
0
0
0
0
0
0
0
0
0
0
0
0
0
0
0
0
0
0
0
0
0
0
0
0
0
0
0
0
0
0
0
0
0
0
0
0
0
0
0
0
0
0
0
0
0
0
0
0
0
0
0
0
